; NVT equilibration with position restraints and velocity generation.
; generated by Comfy-gmx

; ---- Run control -------------------------------------
integrator = md
dt         = 0.002
nsteps     = 50000
comm-mode  = Linear
nstcomm    = 100

; ---- Output control ----------------------------------
nstxout                = 0
nstvout                = 0
nstfout                = 0
nstlog                 = 1000
nstenergy              = 1000
nstxout-compressed     = 1000
compressed-x-precision = 1000

; ---- Neighbour searching -----------------------------
cutoff-scheme           = Verlet
nstlist                 = 20
pbc                     = xyz
verlet-buffer-tolerance = 0.005

; ---- Electrostatics ----------------------------------
coulombtype    = PME
rcoulomb       = 1.2
fourierspacing = 0.12
pme-order      = 4

; ---- Van der Waals -----------------------------------
vdwtype      = cutoff
vdw-modifier = force-switch
rvdw         = 1.2
rvdw-switch  = 1.0
dispcorr     = no

; ---- Temperature coupling ----------------------------
tcoupl  = V-rescale
tc-grps = Protein Non-Protein
tau-t   = 0.1 0.1
ref-t   = 310 310

; ---- Pressure coupling -------------------------------
pcoupl = no

; ---- Velocity generation -----------------------------
gen-vel  = yes
gen-temp = 310
gen-seed = -1

; ---- Bonds -------------------------------------------
constraints          = h-bonds
constraint-algorithm = lincs
continuation         = no
lincs-order          = 4
lincs-iter           = 1

; ---- Restraints / pulling ----------------------------
define = -DPOSRES
